TITLE = "UVLM2D - HARVESTING ENERGY: RUNA014"
VARIABLES = "X", "Y"
ZONE T = "AIRFOIL (     3)         0",   N =    62,  E =    60,   F = FEPOINT,   ET = LINESEG,  C = BLUE
 0.6250E-01
 0.0000E+00
 0.5417E-01
 0.0000E+00
 0.4583E-01
 0.0000E+00
 0.3750E-01
 0.0000E+00
 0.2917E-01
 0.0000E+00
 0.2083E-01
 0.0000E+00
 0.1250E-01
 0.0000E+00
 0.4167E-02
 0.0000E+00
-0.4167E-02
 0.0000E+00
-0.1250E-01
 0.0000E+00
-0.2083E-01
 0.0000E+00
-0.2917E-01
 0.0000E+00
-0.3750E-01
 0.0000E+00
-0.4583E-01
 0.0000E+00
-0.5417E-01
 0.0000E+00
-0.6250E-01
 0.0000E+00
-0.7083E-01
 0.0000E+00
-0.7917E-01
 0.0000E+00
-0.8750E-01
 0.0000E+00
-0.9583E-01
 0.0000E+00
-0.1042E+00
 0.0000E+00
-0.1125E+00
 0.0000E+00
-0.1208E+00
 0.0000E+00
-0.1292E+00
 0.0000E+00
-0.1375E+00
 0.0000E+00
-0.1458E+00
 0.0000E+00
-0.1542E+00
 0.0000E+00
-0.1625E+00
 0.0000E+00
-0.1708E+00
 0.0000E+00
-0.1792E+00
 0.0000E+00
-0.1875E+00
 0.0000E+00
 0.6226E-01
 0.1304E+00
 0.5396E-01
 0.1297E+00
 0.4566E-01
 0.1290E+00
 0.3736E-01
 0.1283E+00
 0.2906E-01
 0.1275E+00
 0.2075E-01
 0.1268E+00
 0.1245E-01
 0.1261E+00
 0.4151E-02
 0.1254E+00
-0.4151E-02
 0.1246E+00
-0.1245E-01
 0.1239E+00
-0.2075E-01
 0.1232E+00
-0.2906E-01
 0.1225E+00
-0.3736E-01
 0.1217E+00
-0.4566E-01
 0.1210E+00
-0.5396E-01
 0.1203E+00
-0.6226E-01
 0.1196E+00
-0.7056E-01
 0.1188E+00
-0.7887E-01
 0.1181E+00
-0.8717E-01
 0.1174E+00
-0.9547E-01
 0.1166E+00
-0.1038E+00
 0.1159E+00
-0.1121E+00
 0.1152E+00
-0.1204E+00
 0.1145E+00
-0.1287E+00
 0.1137E+00
-0.1370E+00
 0.1130E+00
-0.1453E+00
 0.1123E+00
-0.1536E+00
 0.1116E+00
-0.1619E+00
 0.1108E+00
-0.1702E+00
 0.1101E+00
-0.1785E+00
 0.1094E+00
-0.1868E+00
 0.1087E+00
    1      2
    2      3
    3      4
    4      5
    5      6
    6      7
    7      8
    8      9
    9     10
   10     11
   11     12
   12     13
   13     14
   14     15
   15     16
   16     17
   17     18
   18     19
   19     20
   20     21
   21     22
   22     23
   23     24
   24     25
   25     26
   26     27
   27     28
   28     29
   29     30
   30     31
   32     33
   33     34
   34     35
   35     36
   36     37
   37     38
   38     39
   39     40
   40     41
   41     42
   42     43
   43     44
   44     45
   45     46
   46     47
   47     48
   48     49
   49     50
   50     51
   51     52
   52     53
   53     54
   54     55
   55     56
   56     57
   57     58
   58     59
   59     60
   60     61
   61     62
ZONE T = "WAKE AIRFOIL (     3)         0",   I =     2, J =     1,   F = POINT, C = GREEN
-0.1896E+00
 0.0000E+00
-0.1889E+00
 0.1085E+00
ZONE T = "AIRFOIL (     3)         1",   N =    62,  E =    60,   F = FEPOINT,   ET = LINESEG,  C = BLUE
 0.6250E-01
-0.2560E-06
 0.5417E-01
-0.2362E-06
 0.4583E-01
-0.2163E-06
 0.3750E-01
-0.1965E-06
 0.2917E-01
-0.1767E-06
 0.2083E-01
-0.1568E-06
 0.1250E-01
-0.1370E-06
 0.4167E-02
-0.1171E-06
-0.4167E-02
-0.9730E-07
-0.1250E-01
-0.7747E-07
-0.2083E-01
-0.5763E-07
-0.2917E-01
-0.3779E-07
-0.3750E-01
-0.1795E-07
-0.4583E-01
 0.1892E-08
-0.5417E-01
 0.2173E-07
-0.6250E-01
 0.4157E-07
-0.7083E-01
 0.6141E-07
-0.7917E-01
 0.8125E-07
-0.8750E-01
 0.1011E-06
-0.9583E-01
 0.1209E-06
-0.1042E+00
 0.1408E-06
-0.1125E+00
 0.1606E-06
-0.1208E+00
 0.1804E-06
-0.1292E+00
 0.2003E-06
-0.1375E+00
 0.2201E-06
-0.1458E+00
 0.2400E-06
-0.1542E+00
 0.2598E-06
-0.1625E+00
 0.2796E-06
-0.1708E+00
 0.2995E-06
-0.1792E+00
 0.3193E-06
-0.1875E+00
 0.3392E-06
 0.6226E-01
 0.1304E+00
 0.5396E-01
 0.1297E+00
 0.4566E-01
 0.1290E+00
 0.3736E-01
 0.1283E+00
 0.2906E-01
 0.1275E+00
 0.2075E-01
 0.1268E+00
 0.1245E-01
 0.1261E+00
 0.4151E-02
 0.1254E+00
-0.4151E-02
 0.1246E+00
-0.1245E-01
 0.1239E+00
-0.2075E-01
 0.1232E+00
-0.2906E-01
 0.1225E+00
-0.3736E-01
 0.1217E+00
-0.4566E-01
 0.1210E+00
-0.5396E-01
 0.1203E+00
-0.6226E-01
 0.1196E+00
-0.7056E-01
 0.1188E+00
-0.7887E-01
 0.1181E+00
-0.8717E-01
 0.1174E+00
-0.9547E-01
 0.1166E+00
-0.1038E+00
 0.1159E+00
-0.1121E+00
 0.1152E+00
-0.1204E+00
 0.1145E+00
-0.1287E+00
 0.1137E+00
-0.1370E+00
 0.1130E+00
-0.1453E+00
 0.1123E+00
-0.1536E+00
 0.1116E+00
-0.1619E+00
 0.1108E+00
-0.1702E+00
 0.1101E+00
-0.1785E+00
 0.1094E+00
-0.1868E+00
 0.1087E+00
    1      2
    2      3
    3      4
    4      5
    5      6
    6      7
    7      8
    8      9
    9     10
   10     11
   11     12
   12     13
   13     14
   14     15
   15     16
   16     17
   17     18
   18     19
   19     20
   20     21
   21     22
   22     23
   23     24
   24     25
   25     26
   26     27
   27     28
   28     29
   29     30
   30     31
   32     33
   33     34
   34     35
   35     36
   36     37
   37     38
   38     39
   39     40
   40     41
   41     42
   42     43
   43     44
   44     45
   45     46
   46     47
   47     48
   48     49
   49     50
   50     51
   51     52
   52     53
   53     54
   54     55
   55     56
   56     57
   57     58
   58     59
   59     60
   60     61
   61     62
ZONE T = "WAKE AIRFOIL (     3)         1",   I =     4, J =     1,   F = POINT, C = GREEN
-0.1896E+00
 0.3441E-06
-0.1981E+00
-0.2955E-03
-0.1889E+00
 0.1085E+00
-0.1973E+00
 0.1094E+00
ZONE T = "AIRFOIL (     3)         2",   N =    62,  E =    60,   F = FEPOINT,   ET = LINESEG,  C = BLUE
 0.6250E-01
-0.8164E-06
 0.5417E-01
-0.7671E-06
 0.4583E-01
-0.7178E-06
 0.3750E-01
-0.6685E-06
 0.2917E-01
-0.6191E-06
 0.2083E-01
-0.5698E-06
 0.1250E-01
-0.5205E-06
 0.4167E-02
-0.4712E-06
-0.4167E-02
-0.4218E-06
-0.1250E-01
-0.3725E-06
-0.2083E-01
-0.3232E-06
-0.2917E-01
-0.2738E-06
-0.3750E-01
-0.2245E-06
-0.4583E-01
-0.1752E-06
-0.5417E-01
-0.1259E-06
-0.6250E-01
-0.7654E-07
-0.7083E-01
-0.2722E-07
-0.7917E-01
 0.2211E-07
-0.8750E-01
 0.7144E-07
-0.9583E-01
 0.1208E-06
-0.1042E+00
 0.1701E-06
-0.1125E+00
 0.2194E-06
-0.1208E+00
 0.2687E-06
-0.1292E+00
 0.3181E-06
-0.1375E+00
 0.3674E-06
-0.1458E+00
 0.4167E-06
-0.1542E+00
 0.4661E-06
-0.1625E+00
 0.5154E-06
-0.1708E+00
 0.5647E-06
-0.1792E+00
 0.6140E-06
-0.1875E+00
 0.6634E-06
 0.6226E-01
 0.1304E+00
 0.5396E-01
 0.1297E+00
 0.4566E-01
 0.1290E+00
 0.3736E-01
 0.1283E+00
 0.2906E-01
 0.1275E+00
 0.2075E-01
 0.1268E+00
 0.1245E-01
 0.1261E+00
 0.4151E-02
 0.1254E+00
-0.4151E-02
 0.1246E+00
-0.1245E-01
 0.1239E+00
-0.2075E-01
 0.1232E+00
-0.2906E-01
 0.1225E+00
-0.3736E-01
 0.1217E+00
-0.4566E-01
 0.1210E+00
-0.5396E-01
 0.1203E+00
-0.6226E-01
 0.1196E+00
-0.7056E-01
 0.1188E+00
-0.7887E-01
 0.1181E+00
-0.8717E-01
 0.1174E+00
-0.9547E-01
 0.1166E+00
-0.1038E+00
 0.1159E+00
-0.1121E+00
 0.1152E+00
-0.1204E+00
 0.1145E+00
-0.1287E+00
 0.1137E+00
-0.1370E+00
 0.1130E+00
-0.1453E+00
 0.1123E+00
-0.1536E+00
 0.1116E+00
-0.1619E+00
 0.1108E+00
-0.1702E+00
 0.1101E+00
-0.1785E+00
 0.1094E+00
-0.1868E+00
 0.1087E+00
    1      2
    2      3
    3      4
    4      5
    5      6
    6      7
    7      8
    8      9
    9     10
   10     11
   11     12
   12     13
   13     14
   14     15
   15     16
   16     17
   17     18
   18     19
   19     20
   20     21
   21     22
   22     23
   23     24
   24     25
   25     26
   26     27
   27     28
   28     29
   29     30
   30     31
   32     33
   33     34
   34     35
   35     36
   36     37
   37     38
   38     39
   39     40
   40     41
   41     42
   42     43
   43     44
   44     45
   45     46
   46     47
   47     48
   48     49
   49     50
   50     51
   51     52
   52     53
   53     54
   54     55
   55     56
   56     57
   57     58
   58     59
   59     60
   60     61
   61     62
ZONE T = "WAKE AIRFOIL (     3)         2",   I =     6, J =     1,   F = POINT, C = GREEN
-0.1896E+00
 0.6757E-06
-0.1981E+00
-0.5849E-04
-0.2067E+00
-0.6078E-03
-0.1889E+00
 0.1085E+00
-0.1974E+00
 0.1080E+00
-0.2057E+00
 0.1104E+00
ZONE T = "AIRFOIL (     3)         3",   N =    62,  E =    60,   F = FEPOINT,   ET = LINESEG,  C = BLUE
 0.6250E-01
-0.1385E-05
 0.5417E-01
-0.1340E-05
 0.4583E-01
-0.1295E-05
 0.3750E-01
-0.1249E-05
 0.2917E-01
-0.1204E-05
 0.2083E-01
-0.1159E-05
 0.1250E-01
-0.1114E-05
 0.4167E-02
-0.1068E-05
-0.4167E-02
-0.1023E-05
-0.1250E-01
-0.9779E-06
-0.2083E-01
-0.9326E-06
-0.2917E-01
-0.8874E-06
-0.3750E-01
-0.8421E-06
-0.4583E-01
-0.7969E-06
-0.5417E-01
-0.7516E-06
-0.6250E-01
-0.7064E-06
-0.7083E-01
-0.6612E-06
-0.7917E-01
-0.6159E-06
-0.8750E-01
-0.5707E-06
-0.9583E-01
-0.5254E-06
-0.1042E+00
-0.4802E-06
-0.1125E+00
-0.4349E-06
-0.1208E+00
-0.3897E-06
-0.1292E+00
-0.3444E-06
-0.1375E+00
-0.2992E-06
-0.1458E+00
-0.2539E-06
-0.1542E+00
-0.2087E-06
-0.1625E+00
-0.1635E-06
-0.1708E+00
-0.1182E-06
-0.1792E+00
-0.7296E-07
-0.1875E+00
-0.2772E-07
 0.6226E-01
 0.1304E+00
 0.5396E-01
 0.1297E+00
 0.4566E-01
 0.1290E+00
 0.3736E-01
 0.1283E+00
 0.2906E-01
 0.1275E+00
 0.2075E-01
 0.1268E+00
 0.1245E-01
 0.1261E+00
 0.4151E-02
 0.1254E+00
-0.4151E-02
 0.1246E+00
-0.1245E-01
 0.1239E+00
-0.2075E-01
 0.1232E+00
-0.2906E-01
 0.1225E+00
-0.3736E-01
 0.1217E+00
-0.4566E-01
 0.1210E+00
-0.5396E-01
 0.1203E+00
-0.6226E-01
 0.1196E+00
-0.7056E-01
 0.1188E+00
-0.7887E-01
 0.1181E+00
-0.8717E-01
 0.1174E+00
-0.9547E-01
 0.1167E+00
-0.1038E+00
 0.1159E+00
-0.1121E+00
 0.1152E+00
-0.1204E+00
 0.1145E+00
-0.1287E+00
 0.1137E+00
-0.1370E+00
 0.1130E+00
-0.1453E+00
 0.1123E+00
-0.1536E+00
 0.1116E+00
-0.1619E+00
 0.1108E+00
-0.1702E+00
 0.1101E+00
-0.1785E+00
 0.1094E+00
-0.1868E+00
 0.1087E+00
    1      2
    2      3
    3      4
    4      5
    5      6
    6      7
    7      8
    8      9
    9     10
   10     11
   11     12
   12     13
   13     14
   14     15
   15     16
   16     17
   17     18
   18     19
   19     20
   20     21
   21     22
   22     23
   23     24
   24     25
   25     26
   26     27
   27     28
   28     29
   29     30
   30     31
   32     33
   33     34
   34     35
   35     36
   36     37
   37     38
   38     39
   39     40
   40     41
   41     42
   42     43
   43     44
   44     45
   45     46
   46     47
   47     48
   48     49
   49     50
   50     51
   51     52
   52     53
   53     54
   54     55
   55     56
   56     57
   57     58
   58     59
   59     60
   60     61
   61     62
ZONE T = "WAKE AIRFOIL (     3)         3",   I =     8, J =     1,   F = POINT, C = GREEN
-0.1896E+00
-0.1640E-07
-0.1981E+00
-0.3518E-04
-0.2067E+00
-0.1317E-03
-0.2152E+00
-0.9289E-03
-0.1889E+00
 0.1085E+00
-0.1973E+00
 0.1079E+00
-0.2062E+00
 0.1077E+00
-0.2138E+00
 0.1114E+00
ZONE T = "AIRFOIL (     3)        14",   N =    62,  E =    60,   F = FEPOINT,   ET = LINESEG,  C = BLUE
 0.6250E-01
-0.1670E-04
 0.5417E-01
-0.1784E-04
 0.4583E-01
-0.1898E-04
 0.3750E-01
-0.2012E-04
 0.2917E-01
-0.2126E-04
 0.2083E-01
-0.2240E-04
 0.1250E-01
-0.2354E-04
 0.4167E-02
-0.2468E-04
-0.4167E-02
-0.2582E-04
-0.1250E-01
-0.2696E-04
-0.2083E-01
-0.2810E-04
-0.2917E-01
-0.2924E-04
-0.3750E-01
-0.3038E-04
-0.4583E-01
-0.3152E-04
-0.5417E-01
-0.3266E-04
-0.6250E-01
-0.3380E-04
-0.7083E-01
-0.3494E-04
-0.7917E-01
-0.3608E-04
-0.8750E-01
-0.3722E-04
-0.9583E-01
-0.3836E-04
-0.1042E+00
-0.3950E-04
-0.1125E+00
-0.4064E-04
-0.1208E+00
-0.4178E-04
-0.1292E+00
-0.4292E-04
-0.1375E+00
-0.4406E-04
-0.1458E+00
-0.4520E-04
-0.1542E+00
-0.4634E-04
-0.1625E+00
-0.4748E-04
-0.1708E+00
-0.4862E-04
-0.1792E+00
-0.4976E-04
-0.1875E+00
-0.5090E-04
 0.6227E-01
 0.1304E+00
 0.5397E-01
 0.1297E+00
 0.4567E-01
 0.1289E+00
 0.3736E-01
 0.1282E+00
 0.2906E-01
 0.1275E+00
 0.2076E-01
 0.1268E+00
 0.1245E-01
 0.1261E+00
 0.4152E-02
 0.1254E+00
-0.4152E-02
 0.1247E+00
-0.1245E-01
 0.1240E+00
-0.2076E-01
 0.1233E+00
-0.2906E-01
 0.1226E+00
-0.3736E-01
 0.1219E+00
-0.4567E-01
 0.1211E+00
-0.5397E-01
 0.1204E+00
-0.6227E-01
 0.1197E+00
-0.7058E-01
 0.1190E+00
-0.7888E-01
 0.1183E+00
-0.8718E-01
 0.1176E+00
-0.9549E-01
 0.1169E+00
-0.1038E+00
 0.1162E+00
-0.1121E+00
 0.1155E+00
-0.1204E+00
 0.1148E+00
-0.1287E+00
 0.1141E+00
-0.1370E+00
 0.1133E+00
-0.1453E+00
 0.1126E+00
-0.1536E+00
 0.1119E+00
-0.1619E+00
 0.1112E+00
-0.1702E+00
 0.1105E+00
-0.1785E+00
 0.1098E+00
-0.1868E+00
 0.1091E+00
    1      2
    2      3
    3      4
    4      5
    5      6
    6      7
    7      8
    8      9
    9     10
   10     11
   11     12
   12     13
   13     14
   14     15
   15     16
   16     17
   17     18
   18     19
   19     20
   20     21
   21     22
   22     23
   23     24
   24     25
   25     26
   26     27
   27     28
   28     29
   29     30
   30     31
   32     33
   33     34
   34     35
   35     36
   36     37
   37     38
   38     39
   39     40
   40     41
   41     42
   42     43
   43     44
   44     45
   45     46
   46     47
   47     48
   48     49
   49     50
   50     51
   51     52
   52     53
   53     54
   54     55
   55     56
   56     57
   57     58
   58     59
   59     60
   60     61
   61     62
ZONE T = "WAKE AIRFOIL (     3)        14",   I =    30, J =     1,   F = POINT, C = GREEN
-0.1896E+00
-0.5118E-04
-0.1981E+00
-0.8155E-04
-0.2067E+00
-0.1310E-03
-0.2152E+00
-0.1902E-03
-0.2238E+00
-0.2543E-03
-0.2325E+00
-0.3203E-03
-0.2411E+00
-0.3857E-03
-0.2497E+00
-0.4492E-03
-0.2584E+00
-0.5100E-03
-0.2670E+00
-0.5698E-03
-0.2756E+00
-0.6303E-03
-0.2842E+00
-0.7092E-03
-0.2929E+00
-0.8373E-03
-0.3018E+00
-0.1183E-02
-0.3090E+00
-0.4637E-02
-0.1889E+00
 0.1089E+00
-0.1973E+00
 0.1082E+00
-0.2057E+00
 0.1076E+00
-0.2141E+00
 0.1070E+00
-0.2225E+00
 0.1064E+00
-0.2309E+00
 0.1058E+00
-0.2394E+00
 0.1052E+00
-0.2480E+00
 0.1047E+00
-0.2566E+00
 0.1042E+00
-0.2653E+00
 0.1038E+00
-0.2743E+00
 0.1035E+00
-0.2839E+00
 0.1037E+00
-0.2951E+00
 0.1052E+00
-0.3077E+00
 0.1142E+00
-0.2985E+00
 0.1169E+00
ZONE T = "AIRFOIL (     3)        24",   N =    62,  E =    60,   F = FEPOINT,   ET = LINESEG,  C = BLUE
 0.6250E-01
-0.4436E-04
 0.5417E-01
-0.4843E-04
 0.4583E-01
-0.5249E-04
 0.3750E-01
-0.5656E-04
 0.2917E-01
-0.6062E-04
 0.2083E-01
-0.6469E-04
 0.1250E-01
-0.6875E-04
 0.4167E-02
-0.7281E-04
-0.4167E-02
-0.7688E-04
-0.1250E-01
-0.8094E-04
-0.2083E-01
-0.8500E-04
-0.2917E-01
-0.8907E-04
-0.3750E-01
-0.9313E-04
-0.4583E-01
-0.9720E-04
-0.5417E-01
-0.1013E-03
-0.6250E-01
-0.1053E-03
-0.7083E-01
-0.1094E-03
-0.7917E-01
-0.1135E-03
-0.8750E-01
-0.1175E-03
-0.9583E-01
-0.1216E-03
-0.1042E+00
-0.1256E-03
-0.1125E+00
-0.1297E-03
-0.1208E+00
-0.1338E-03
-0.1292E+00
-0.1378E-03
-0.1375E+00
-0.1419E-03
-0.1458E+00
-0.1460E-03
-0.1542E+00
-0.1500E-03
-0.1625E+00
-0.1541E-03
-0.1708E+00
-0.1582E-03
-0.1792E+00
-0.1622E-03
-0.1875E+00
-0.1663E-03
 0.6229E-01
 0.1302E+00
 0.5399E-01
 0.1295E+00
 0.4568E-01
 0.1289E+00
 0.3738E-01
 0.1282E+00
 0.2907E-01
 0.1275E+00
 0.2076E-01
 0.1268E+00
 0.1246E-01
 0.1261E+00
 0.4153E-02
 0.1255E+00
-0.4153E-02
 0.1248E+00
-0.1246E-01
 0.1241E+00
-0.2076E-01
 0.1234E+00
-0.2907E-01
 0.1228E+00
-0.3738E-01
 0.1221E+00
-0.4568E-01
 0.1214E+00
-0.5399E-01
 0.1207E+00
-0.6229E-01
 0.1201E+00
-0.7060E-01
 0.1194E+00
-0.7891E-01
 0.1187E+00
-0.8721E-01
 0.1180E+00
-0.9552E-01
 0.1173E+00
-0.1038E+00
 0.1167E+00
-0.1121E+00
 0.1160E+00
-0.1204E+00
 0.1153E+00
-0.1287E+00
 0.1146E+00
-0.1370E+00
 0.1140E+00
-0.1454E+00
 0.1133E+00
-0.1537E+00
 0.1126E+00
-0.1620E+00
 0.1119E+00
-0.1703E+00
 0.1113E+00
-0.1786E+00
 0.1106E+00
-0.1869E+00
 0.1099E+00
    1      2
    2      3
    3      4
    4      5
    5      6
    6      7
    7      8
    8      9
    9     10
   10     11
   11     12
   12     13
   13     14
   14     15
   15     16
   16     17
   17     18
   18     19
   19     20
   20     21
   21     22
   22     23
   23     24
   24     25
   25     26
   26     27
   27     28
   28     29
   29     30
   30     31
   32     33
   33     34
   34     35
   35     36
   36     37
   37     38
   38     39
   39     40
   40     41
   41     42
   42     43
   43     44
   44     45
   45     46
   46     47
   47     48
   48     49
   49     50
   50     51
   51     52
   52     53
   53     54
   54     55
   55     56
   56     57
   57     58
   58     59
   59     60
   60     61
   61     62
ZONE T = "WAKE AIRFOIL (     3)        24",   I =    50, J =     1,   F = POINT, C = GREEN
-0.1896E+00
-0.1673E-03
-0.1980E+00
-0.1977E-03
-0.2065E+00
-0.2492E-03
-0.2149E+00
-0.3131E-03
-0.2235E+00
-0.3854E-03
-0.2320E+00
-0.4634E-03
-0.2406E+00
-0.5450E-03
-0.2492E+00
-0.6285E-03
-0.2578E+00
-0.7121E-03
-0.2664E+00
-0.7942E-03
-0.2751E+00
-0.8731E-03
-0.2838E+00
-0.9471E-03
-0.2925E+00
-0.1015E-02
-0.3012E+00
-0.1074E-02
-0.3100E+00
-0.1125E-02
-0.3187E+00
-0.1167E-02
-0.3275E+00
-0.1200E-02
-0.3362E+00
-0.1227E-02
-0.3449E+00
-0.1248E-02
-0.3536E+00
-0.1272E-02
-0.3622E+00
-0.1306E-02
-0.3709E+00
-0.1389E-02
-0.3797E+00
-0.1589E-02
-0.3895E+00
-0.2177E-02
-0.3938E+00
-0.7889E-02
-0.1890E+00
 0.1097E+00
-0.1973E+00
 0.1091E+00
-0.2056E+00
 0.1085E+00
-0.2140E+00
 0.1078E+00
-0.2224E+00
 0.1072E+00
-0.2308E+00
 0.1067E+00
-0.2392E+00
 0.1061E+00
-0.2476E+00
 0.1055E+00
-0.2560E+00
 0.1049E+00
-0.2645E+00
 0.1043E+00
-0.2730E+00
 0.1038E+00
-0.2815E+00
 0.1032E+00
-0.2900E+00
 0.1027E+00
-0.2985E+00
 0.1021E+00
-0.3071E+00
 0.1016E+00
-0.3158E+00
 0.1011E+00
-0.3245E+00
 0.1006E+00
-0.3333E+00
 0.1002E+00
-0.3424E+00
 0.9996E-01
-0.3519E+00
 0.9990E-01
-0.3623E+00
 0.1003E+00
-0.3750E+00
 0.1021E+00
-0.3886E+00
 0.1120E+00
-0.3856E+00
 0.1259E+00
-0.3783E+00
 0.1155E+00
ZONE T = "AIRFOIL (     3)        34",   N =    62,  E =    60,   F = FEPOINT,   ET = LINESEG,  C = BLUE
 0.6250E-01
-0.8051E-04
 0.5417E-01
-0.8913E-04
 0.4583E-01
-0.9774E-04
 0.3750E-01
-0.1064E-03
 0.2917E-01
-0.1150E-03
 0.2083E-01
-0.1236E-03
 0.1250E-01
-0.1322E-03
 0.4167E-02
-0.1408E-03
-0.4167E-02
-0.1494E-03
-0.1250E-01
-0.1580E-03
-0.2083E-01
-0.1667E-03
-0.2917E-01
-0.1753E-03
-0.3750E-01
-0.1839E-03
-0.4583E-01
-0.1925E-03
-0.5417E-01
-0.2011E-03
-0.6250E-01
-0.2097E-03
-0.7083E-01
-0.2183E-03
-0.7917E-01
-0.2269E-03
-0.8750E-01
-0.2356E-03
-0.9583E-01
-0.2442E-03
-0.1042E+00
-0.2528E-03
-0.1125E+00
-0.2614E-03
-0.1208E+00
-0.2700E-03
-0.1292E+00
-0.2786E-03
-0.1375E+00
-0.2872E-03
-0.1458E+00
-0.2959E-03
-0.1542E+00
-0.3045E-03
-0.1625E+00
-0.3131E-03
-0.1708E+00
-0.3217E-03
-0.1792E+00
-0.3303E-03
-0.1875E+00
-0.3389E-03
 0.6232E-01
 0.1300E+00
 0.5401E-01
 0.1294E+00
 0.4570E-01
 0.1287E+00
 0.3739E-01
 0.1281E+00
 0.2908E-01
 0.1275E+00
 0.2077E-01
 0.1268E+00
 0.1246E-01
 0.1262E+00
 0.4155E-02
 0.1256E+00
-0.4155E-02
 0.1249E+00
-0.1246E-01
 0.1243E+00
-0.2077E-01
 0.1237E+00
-0.2908E-01
 0.1231E+00
-0.3739E-01
 0.1224E+00
-0.4570E-01
 0.1218E+00
-0.5401E-01
 0.1212E+00
-0.6232E-01
 0.1205E+00
-0.7063E-01
 0.1199E+00
-0.7894E-01
 0.1193E+00
-0.8725E-01
 0.1186E+00
-0.9556E-01
 0.1180E+00
-0.1039E+00
 0.1174E+00
-0.1122E+00
 0.1167E+00
-0.1205E+00
 0.1161E+00
-0.1288E+00
 0.1155E+00
-0.1371E+00
 0.1149E+00
-0.1454E+00
 0.1142E+00
-0.1537E+00
 0.1136E+00
-0.1620E+00
 0.1130E+00
-0.1703E+00
 0.1123E+00
-0.1787E+00
 0.1117E+00
-0.1870E+00
 0.1111E+00
    1      2
    2      3
    3      4
    4      5
    5      6
    6      7
    7      8
    8      9
    9     10
   10     11
   11     12
   12     13
   13     14
   14     15
   15     16
   16     17
   17     18
   18     19
   19     20
   20     21
   21     22
   22     23
   23     24
   24     25
   25     26
   26     27
   27     28
   28     29
   29     30
   30     31
   32     33
   33     34
   34     35
   35     36
   36     37
   37     38
   38     39
   39     40
   40     41
   41     42
   42     43
   43     44
   44     45
   45     46
   46     47
   47     48
   48     49
   49     50
   50     51
   51     52
   52     53
   53     54
   54     55
   55     56
   56     57
   57     58
   58     59
   59     60
   60     61
   61     62
ZONE T = "WAKE AIRFOIL (     3)        34",   I =    70, J =     1,   F = POINT, C = GREEN
-0.1896E+00
-0.3411E-03
-0.1979E+00
-0.3715E-03
-0.2063E+00
-0.4212E-03
-0.2147E+00
-0.4825E-03
-0.2231E+00
-0.5524E-03
-0.2315E+00
-0.6289E-03
-0.2400E+00
-0.7105E-03
-0.2484E+00
-0.7961E-03
-0.2570E+00
-0.8848E-03
-0.2655E+00
-0.9757E-03
-0.2741E+00
-0.1068E-02
-0.2827E+00
-0.1161E-02
-0.2913E+00
-0.1253E-02
-0.2999E+00
-0.1344E-02
-0.3086E+00
-0.1434E-02
-0.3173E+00
-0.1520E-02
-0.3260E+00
-0.1601E-02
-0.3348E+00
-0.1678E-02
-0.3436E+00
-0.1747E-02
-0.3524E+00
-0.1807E-02
-0.3612E+00
-0.1857E-02
-0.3700E+00
-0.1896E-02
-0.3788E+00
-0.1921E-02
-0.3877E+00
-0.1932E-02
-0.3965E+00
-0.1928E-02
-0.4054E+00
-0.1911E-02
-0.4142E+00
-0.1884E-02
-0.4230E+00
-0.1852E-02
-0.4317E+00
-0.1820E-02
-0.4404E+00
-0.1803E-02
-0.4491E+00
-0.1814E-02
-0.4578E+00
-0.1927E-02
-0.4669E+00
-0.2278E-02
-0.4783E+00
-0.3830E-02
-0.4778E+00
-0.1048E-01
-0.1890E+00
 0.1109E+00
-0.1973E+00
 0.1103E+00
-0.2056E+00
 0.1097E+00
-0.2140E+00
 0.1091E+00
-0.2223E+00
 0.1085E+00
-0.2306E+00
 0.1080E+00
-0.2390E+00
 0.1074E+00
-0.2474E+00
 0.1068E+00
-0.2558E+00
 0.1063E+00
-0.2642E+00
 0.1057E+00
-0.2726E+00
 0.1051E+00
-0.2810E+00
 0.1046E+00
-0.2895E+00
 0.1040E+00
-0.2979E+00
 0.1034E+00
-0.3064E+00
 0.1029E+00
-0.3149E+00
 0.1023E+00
-0.3234E+00
 0.1017E+00
-0.3319E+00
 0.1012E+00
-0.3404E+00
 0.1006E+00
-0.3490E+00
 0.1001E+00
-0.3576E+00
 0.9952E-01
-0.3662E+00
 0.9898E-01
-0.3749E+00
 0.9846E-01
-0.3836E+00
 0.9795E-01
-0.3924E+00
 0.9747E-01
-0.4013E+00
 0.9705E-01
-0.4103E+00
 0.9671E-01
-0.4197E+00
 0.9652E-01
-0.4295E+00
 0.9655E-01
-0.4401E+00
 0.9703E-01
-0.4530E+00
 0.9850E-01
-0.4699E+00
 0.1067E+00
-0.4708E+00
 0.1251E+00
-0.4577E+00
 0.1274E+00
-0.4625E+00
 0.1147E+00
ZONE T = "AIRFOIL (     3)        44",   N =    62,  E =    60,   F = FEPOINT,   ET = LINESEG,  C = BLUE
 0.6250E-01
-0.1153E-03
 0.5417E-01
-0.1301E-03
 0.4583E-01
-0.1448E-03
 0.3750E-01
-0.1595E-03
 0.2917E-01
-0.1742E-03
 0.2083E-01
-0.1890E-03
 0.1250E-01
-0.2037E-03
 0.4167E-02
-0.2184E-03
-0.4167E-02
-0.2332E-03
-0.1250E-01
-0.2479E-03
-0.2083E-01
-0.2626E-03
-0.2917E-01
-0.2774E-03
-0.3750E-01
-0.2921E-03
-0.4583E-01
-0.3068E-03
-0.5417E-01
-0.3215E-03
-0.6250E-01
-0.3363E-03
-0.7083E-01
-0.3510E-03
-0.7917E-01
-0.3657E-03
-0.8750E-01
-0.3805E-03
-0.9583E-01
-0.3952E-03
-0.1042E+00
-0.4099E-03
-0.1125E+00
-0.4246E-03
-0.1208E+00
-0.4394E-03
-0.1292E+00
-0.4541E-03
-0.1375E+00
-0.4688E-03
-0.1458E+00
-0.4836E-03
-0.1542E+00
-0.4983E-03
-0.1625E+00
-0.5130E-03
-0.1708E+00
-0.5277E-03
-0.1792E+00
-0.5425E-03
-0.1875E+00
-0.5572E-03
 0.6235E-01
 0.1297E+00
 0.5404E-01
 0.1291E+00
 0.4573E-01
 0.1286E+00
 0.3741E-01
 0.1280E+00
 0.2910E-01
 0.1274E+00
 0.2078E-01
 0.1268E+00
 0.1247E-01
 0.1263E+00
 0.4157E-02
 0.1257E+00
-0.4157E-02
 0.1251E+00
-0.1247E-01
 0.1246E+00
-0.2078E-01
 0.1240E+00
-0.2910E-01
 0.1234E+00
-0.3741E-01
 0.1228E+00
-0.4573E-01
 0.1223E+00
-0.5404E-01
 0.1217E+00
-0.6235E-01
 0.1211E+00
-0.7067E-01
 0.1205E+00
-0.7898E-01
 0.1200E+00
-0.8729E-01
 0.1194E+00
-0.9561E-01
 0.1188E+00
-0.1039E+00
 0.1183E+00
-0.1122E+00
 0.1177E+00
-0.1205E+00
 0.1171E+00
-0.1289E+00
 0.1165E+00
-0.1372E+00
 0.1160E+00
-0.1455E+00
 0.1154E+00
-0.1538E+00
 0.1148E+00
-0.1621E+00
 0.1143E+00
-0.1704E+00
 0.1137E+00
-0.1787E+00
 0.1131E+00
-0.1871E+00
 0.1125E+00
    1      2
    2      3
    3      4
    4      5
    5      6
    6      7
    7      8
    8      9
    9     10
   10     11
   11     12
   12     13
   13     14
   14     15
   15     16
   16     17
   17     18
   18     19
   19     20
   20     21
   21     22
   22     23
   23     24
   24     25
   25     26
   26     27
   27     28
   28     29
   29     30
   30     31
   32     33
   33     34
   34     35
   35     36
   36     37
   37     38
   38     39
   39     40
   40     41
   41     42
   42     43
   43     44
   44     45
   45     46
   46     47
   47     48
   48     49
   49     50
   50     51
   51     52
   52     53
   53     54
   54     55
   55     56
   56     57
   57     58
   58     59
   59     60
   60     61
   61     62
ZONE T = "WAKE AIRFOIL (     3)        44",   I =    90, J =     1,   F = POINT, C = GREEN
-0.1896E+00
-0.5609E-03
-0.1978E+00
-0.5928E-03
-0.2061E+00
-0.6400E-03
-0.2144E+00
-0.6970E-03
-0.2228E+00
-0.7614E-03
-0.2311E+00
-0.8318E-03
-0.2395E+00
-0.9072E-03
-0.2479E+00
-0.9867E-03
-0.2563E+00
-0.1070E-02
-0.2647E+00
-0.1156E-02
-0.2731E+00
-0.1245E-02
-0.2816E+00
-0.1336E-02
-0.2901E+00
-0.1429E-02
-0.2986E+00
-0.1524E-02
-0.3072E+00
-0.1619E-02
-0.3158E+00
-0.1715E-02
-0.3244E+00
-0.1812E-02
-0.3330E+00
-0.1908E-02
-0.3416E+00
-0.2003E-02
-0.3503E+00
-0.2097E-02
-0.3590E+00
-0.2188E-02
-0.3678E+00
-0.2277E-02
-0.3765E+00
-0.2362E-02
-0.3853E+00
-0.2442E-02
-0.3941E+00
-0.2516E-02
-0.4030E+00
-0.2582E-02
-0.4118E+00
-0.2640E-02
-0.4207E+00
-0.2687E-02
-0.4296E+00
-0.2722E-02
-0.4386E+00
-0.2742E-02
-0.4475E+00
-0.2746E-02
-0.4564E+00
-0.2731E-02
-0.4654E+00
-0.2697E-02
-0.4744E+00
-0.2644E-02
-0.4833E+00
-0.2571E-02
-0.4922E+00
-0.2484E-02
-0.5011E+00
-0.2386E-02
-0.5099E+00
-0.2289E-02
-0.5187E+00
-0.2201E-02
-0.5275E+00
-0.2149E-02
-0.5362E+00
-0.2150E-02
-0.5451E+00
-0.2325E-02
-0.5547E+00
-0.2924E-02
-0.5668E+00
-0.7114E-02
-0.5615E+00
-0.1186E-01
-0.1891E+00
 0.1124E+00
-0.1974E+00
 0.1118E+00
-0.2057E+00
 0.1113E+00
-0.2140E+00
 0.1107E+00
-0.2223E+00
 0.1102E+00
-0.2306E+00
 0.1096E+00
-0.2389E+00
 0.1091E+00
-0.2472E+00
 0.1085E+00
-0.2555E+00
 0.1080E+00
-0.2639E+00
 0.1074E+00
-0.2723E+00
 0.1069E+00
-0.2806E+00
 0.1063E+00
-0.2890E+00
 0.1058E+00
-0.2974E+00
 0.1052E+00
-0.3058E+00
 0.1047E+00
-0.3143E+00
 0.1041E+00
-0.3227E+00
 0.1035E+00
-0.3312E+00
 0.1030E+00
-0.3396E+00
 0.1024E+00
-0.3481E+00
 0.1018E+00
-0.3566E+00
 0.1013E+00
-0.3651E+00
 0.1007E+00
-0.3736E+00
 0.1001E+00
-0.3822E+00
 0.9955E-01
-0.3907E+00
 0.9898E-01
-0.3993E+00
 0.9841E-01
-0.4079E+00
 0.9784E-01
-0.4165E+00
 0.9728E-01
-0.4251E+00
 0.9672E-01
-0.4338E+00
 0.9616E-01
-0.4425E+00
 0.9562E-01
-0.4513E+00
 0.9510E-01
-0.4601E+00
 0.9459E-01
-0.4691E+00
 0.9413E-01
-0.4781E+00
 0.9373E-01
-0.4874E+00
 0.9342E-01
-0.4969E+00
 0.9326E-01
-0.5069E+00
 0.9337E-01
-0.5177E+00
 0.9391E-01
-0.5299E+00
 0.9537E-01
-0.5460E+00
 0.9949E-01
-0.5580E+00
 0.1204E+00
-0.5440E+00
 0.1313E+00
-0.5342E+00
 0.1209E+00
-0.5482E+00
 0.1168E+00
ZONE T = "AIRFOIL (     3)        54",   N =    62,  E =    60,   F = FEPOINT,   ET = LINESEG,  C = BLUE
 0.6250E-01
-0.1357E-03
 0.5417E-01
-0.1581E-03
 0.4583E-01
-0.1805E-03
 0.3750E-01
-0.2029E-03
 0.2917E-01
-0.2253E-03
 0.2083E-01
-0.2478E-03
 0.1250E-01
-0.2702E-03
 0.4167E-02
-0.2926E-03
-0.4167E-02
-0.3150E-03
-0.1250E-01
-0.3374E-03
-0.2083E-01
-0.3598E-03
-0.2917E-01
-0.3823E-03
-0.3750E-01
-0.4047E-03
-0.4583E-01
-0.4271E-03
-0.5417E-01
-0.4495E-03
-0.6250E-01
-0.4719E-03
-0.7083E-01
-0.4944E-03
-0.7917E-01
-0.5168E-03
-0.8750E-01
-0.5392E-03
-0.9583E-01
-0.5616E-03
-0.1042E+00
-0.5840E-03
-0.1125E+00
-0.6064E-03
-0.1208E+00
-0.6289E-03
-0.1292E+00
-0.6513E-03
-0.1375E+00
-0.6737E-03
-0.1458E+00
-0.6961E-03
-0.1542E+00
-0.7185E-03
-0.1625E+00
-0.7409E-03
-0.1708E+00
-0.7634E-03
-0.1792E+00
-0.7858E-03
-0.1875E+00
-0.8082E-03
 0.6239E-01
 0.1293E+00
 0.5407E-01
 0.1288E+00
 0.4575E-01
 0.1283E+00
 0.3743E-01
 0.1278E+00
 0.2911E-01
 0.1273E+00
 0.2080E-01
 0.1268E+00
 0.1248E-01
 0.1263E+00
 0.4159E-02
 0.1258E+00
-0.4159E-02
 0.1253E+00
-0.1248E-01
 0.1248E+00
-0.2080E-01
 0.1243E+00
-0.2911E-01
 0.1238E+00
-0.3743E-01
 0.1233E+00
-0.4575E-01
 0.1228E+00
-0.5407E-01
 0.1223E+00
-0.6239E-01
 0.1218E+00
-0.7070E-01
 0.1213E+00
-0.7902E-01
 0.1208E+00
-0.8734E-01
 0.1203E+00
-0.9566E-01
 0.1198E+00
-0.1040E+00
 0.1193E+00
-0.1123E+00
 0.1188E+00
-0.1206E+00
 0.1183E+00
-0.1289E+00
 0.1178E+00
-0.1373E+00
 0.1173E+00
-0.1456E+00
 0.1168E+00
-0.1539E+00
 0.1163E+00
-0.1622E+00
 0.1158E+00
-0.1705E+00
 0.1153E+00
-0.1788E+00
 0.1148E+00
-0.1872E+00
 0.1143E+00
    1      2
    2      3
    3      4
    4      5
    5      6
    6      7
    7      8
    8      9
    9     10
   10     11
   11     12
   12     13
   13     14
   14     15
   15     16
   16     17
   17     18
   18     19